
                                 *****************
                                 * O   R   C   A *
                                 *****************

                                            #,                                       
                                            ###                                      
                                            ####                                     
                                            #####                                    
                                            ######                                   
                                           ########,                                 
                                     ,,################,,,,,                         
                               ,,#################################,,                 
                          ,,##########################################,,             
                       ,#########################################, ''#####,          
                    ,#############################################,,   '####,        
                  ,##################################################,,,,####,       
                ,###########''''           ''''###############################       
              ,#####''   ,,,,##########,,,,          '''####'''          '####       
            ,##' ,,,,###########################,,,                        '##       
           ' ,,###''''                  '''############,,,                           
         ,,##''                                '''############,,,,        ,,,,,,###''
      ,#''                                            '''#######################'''  
     '                                                          ''''####''''         
             ,#######,   #######,   ,#######,      ##                                
            ,#'     '#,  ##    ##  ,#'     '#,    #''#        ,####,    ,#,          
            ##       ##  ##   ,#'  ##            #'  '#       #'       ,# #          
            ##       ##  #######   ##           ,######,      #####,      #          
            '#,     ,#'  ##    ##  '#,     ,#' ,#      #,     #,   #      #          
             '#######'   ##     ##  '#######'  #'      '#     '####' #    #          



                #########################################################
                #                        -***-                          #
                #          Department of theory and spectroscopy        #
                #                                                       #
                #                      Frank Neese                      #
                #                                                       #
                #     Directorship, Architecture, Infrastructure        #
                #                    SHARK, DRIVERS                     #
                #        Core code/Algorithms in most modules           #
                #                                                       #
                #        Max Planck Institute fuer Kohlenforschung      #
                #                Kaiser Wilhelm Platz 1                 #
                #                 D-45470 Muelheim/Ruhr                 #
                #                      Germany                          #
                #                                                       #
                #                  All rights reserved                  #
                #                        -***-                          #
                #########################################################


                         Program Version 6.1.0  -  RELEASE   -


 With contributions from (in alphabetic order):
[Max-Planck-Institut fuer Kohlenforschung]                               
  Daniel Aravena         : Magnetic Suceptibility                        
  Michael Atanasov       : Ab Initio Ligand Field Theory (pilot matlab implementation)
  Alexander A. Auer      : GIAO ZORA, VPT2 properties, NMR spectrum      
  Ute Becker             : All parallelization in ORCA, NUMFREQ, NUMCALC 
  Giovanni Bistoni       : ED, misc. LED, open-shell LED, HFLD           
  Dmytro Bykov           : pre 5.0 version of the SCF Hessian            
  Marcos Casanova-Páez   : Triplet and SCS-CIS(D). UHF-(DLPNO)-IP/EA/STEOM-CCSD. UHF-CVS-IP/STEOM-CCSD   
  Vijay G. Chilkuri      : MRCI spin determinant printing, contributions to CSF-ICE 
  Pauline Colinet        : FMM embedding                                 
  Dipayan Datta          : RHF DLPNO-CCSD density                        
  Achintya Kumar Dutta   : EOM-CC, STEOM-CC                              
  Nicolas Foglia         : Exact transition moments, OPA infrastructure, MCD improvements    
  Dmitry Ganyushin       : Spin-Orbit,Spin-Spin,Magnetic field MRCI      
  Miquel Garcia-Rates    : C-PCM and meta-GGA Hessian, CCSD/C-PCM, Gaussian charge scheme 
  Tiago L. C. Gouveia    : GS-ROHF, GS-ROCIS                             
  Yang Guo               : DLPNO-NEVPT2, F12-NEVPT2, CIM, IAO-localization        
  Andreas Hansen         : Spin unrestricted coupled pair/coupled cluster methods 
  Ingolf Harden          : AUTO-CI MPn and infrastructure                
  Benjamin Helmich-Paris : MC-RPA, TRAH-(SCF,CASSCF), AVAS, COSX integrals, SCF dyn. polar., MC-PDFT, srDFT 
  Lee Huntington         : MR-EOM, pCC                                   
  Robert Izsak           : Overlap fitted RIJCOSX, COSX-SCS-MP3, EOM     
  Riya Kayal             : Wick's Theorem for AUTO-CI, AUTO-CI UHF-CCSDT 
  Emily Kempfer          : AUTO-CI RHF CISDT and CCSDT, approximate NEVPT4
  Christian Kollmar      : KDIIS, OOCD, Brueckner-CCSD(T), CCSD density, CASPT2, CASPT2-K, improved NEVPT2 
  Axel Koslowski         : Symmetry handling                             
  Simone Kossmann        : meta-GGA functionals, TD-DFT gradient, OOMP2, (MP2 Hessian; deprecated post 5.0) 
  Lucas Lang             : DCDCAS, Hyperfine gauge corrections, ICE-SOC+SSC
  Marvin Lechner         : AUTO-CI (C++ implementation), FIC-MRCC        
  Spencer Leger          : CASSCF response                               
  Dagmar Lenk            : GEPOL surface, SMD, ORCA-2-JSON               
  Dimitrios Liakos       : Extrapolation schemes; Compound Job, Property file
  Dimitrios Manganas     : Further ROCIS development; embedding schemes. LFT, Crystal Embedding 
  Dimitrios Pantazis     : SARC Basis sets                               
  Anastasios Papadopoulos: AUTO-CI, single reference methods and gradients 
  Taras Petrenko         : pre 6.0 DFT Hessian and TD-DFT gradient,  ECA, NRVS 
  Petra Pikulova         : Analytic Raman intensities                    
  Peter Pinski           : DLPNO-MP2, DLPNO-MP2 Gradient                 
  Shashank Vittal Rao    : ES-AILFT, MagRelax                            
  Christoph Reimann      : Effective Core Potentials                     
  Marius Retegan         : Local ZFS, SOC                                
  Christoph Riplinger    : Optimizer, TS searches, QM/MM, DLPNO-CCSD(T), (RO)-DLPNO pert. Triples 
  Michael Roemelt        : Original ROCIS implementation, recursive CI coupling coefficients
  Masaaki Saitow         : Open-shell DLPNO-CCSD energy and density      
  Barbara Sandhoefer     : DKH picture change effects                    
  Yorick L. A. Schmerwitz: GMF and freeze-and-release deltaSCF, NEB S-IDPP initial path                    
  Kantharuban Sivalingam : CASSCF convergence/infrastructure, NEVPT2, NEVPT3, NEVPT4(SD), FIC-MRCI and CEPA variants
  Bernardo de Souza      : ESD, SOC TD-DFT                               
  Georgi L. Stoychev     : AutoAux, RI-MP2 NMR, DLPNO-MP2 response, X2C  
  Van Anh Tran           : RI-MP2 g-tensors                              
  Willem Van den Heuvel  : Paramagnetic NMR                              
  Zikuan Wang            : NOTCH, Electric field optimization            
  Frank Wennmohs         : Technical directorship and infrastructure     
  Hang Xu                : AUTO-CI-Response properties                   
                                                                         
[FACCTs GmbH]                                                            
  Markus Bursch, Nicolas Foglia, Miquel Garcia-Rates, Ingolf Harden, Hagen Neugebauer, Anastasios Papadopoulos, 
  Christoph Riplinger, Bernardo de Souza, Georgi L. Stoychev                                                    
                                                                 
  APM, various basis sets, CI-OPT, improved COSX, DLPNO-Multilevel,           
  DOCKER, DRACO, updates on ESD, Fragmentator, GOAT, IRC, LR-CPCM, L-BFGS, MBIS, meta-GGA TD-DFT gradient, ML-optimized integration grids, 
  MM, NACMEs, nearIR, NEB, NEB-TS, NL-DFT gradient (VV10), 2- and 3-layer-ONIOM, interface openCOSMO-RS, QMMM,   
  Crystal-QMMM, RESP, rigid body optimization, SF, symmetry and pop. for TD-DFT, various functionals, SOLVATOR                                   
                                                                         
[Other institutions]                                                     
  V. Asgeirsson          : NEB                                           
  Christoph Bannwarth    : sTDA-DFT, sTD-DFT, PBEh-3c, B97-3c, D3        
  Giovanni Bistoni       : ETS/NOCV, ADLD/ADEX, COVALED                  
  Martin Brehm           : Molecular dynamics                            
  Ronald Cardenas        : ETS/NOCV                                      
  Martina Colucci        : COVALED                                       
  Sebastian Ehlert       : rSCAN, r2SCAN, r2SCAN-3c, D4, dhf basis sets  
  Marvin Friede          : D4 for Fr, Ra, Ac-Lr                          
  Lars Goerigk           : TD-DFT with DH, B97 family of functionals     
  Stefan Grimme          : VdW corrections, initial TS optimization, DFT functionals, gCP, sTDA/sTD-DF 
  Waldemar Hujo          : DFT-NL                                        
  H. Jonsson             : NEB                                           
  Holger Kruse           : gCP                                           
  Marcel Mueller         : wB97X-3c, vDZP basis set                      
  Hagen Neugebauer       : wr2SCAN, Native XTB                           
  Gianluca Regni         : ADLD/ADEX                                     
  Tobias Risthaus        : pre 6.0 range-separated hybrid DFT and stability analysis
  Lukas Wittmann         : regularized MP2, r2SCAN double-hybrids, wr2SCAN        
                                                                         
We gratefully acknowledge several colleagues who have allowed us to      
interface, adapt or use parts of their codes:                            
  Ed Valeev, F. Pavosevic, A. Kumar             : LibInt (2-el integral package), F12 methods 
  Garnet Chan, S. Sharma, J. Yang, R. Olivares  : DMRG                   
  Ulf Ekstrom                                   : XCFun DFT Library      
  Mihaly Kallay                                 : mrcc  (arbitrary order and MRCC methods)
  Frank Weinhold                                : gennbo (NPA and NBO analysis)           
  Simon Mueller                                 : openCOSMO-RS                            
  Christopher J. Cramer and Donald G. Truhlar   : smd solvation model                     
  S Lehtola, MJT Oliveira, MAL Marques          : LibXC Library                           
  Liviu Ungur et al                             : ANISO software                          


 Your calculation uses the libint2 library for the computation of 2-el integrals
 For citations please refer to: http://libint.valeyev.net

 Your ORCA version has been built with support for libXC version: 7.0.0
 For citations please refer to: https://libxc.gitlab.io

 This ORCA versions uses:
   CBLAS   interface :  Fast vector & matrix operations
   LAPACKE interface :  Fast linear algebra routines
   Shared memory     :  Shared parallel matrices


  ***********************************
  * Starting time: Fri Oct 31 17:28:23 2025
  * Host name:     DESKTOP-GJTAL5R
  * Process ID:    15552
  * Working dir.:  D:\Ackern\BLLAmen\qc_debug
  ***********************************

Your calculation utilizes the atom-pairwise dispersion correction
with the Becke-Johnson damping scheme (D3BJ)


Warning: RI is on but no J-basis has been assigned. Assigning Def2/J (nothing to worry about!)
================================================================================

----- Orbital basis set information -----
Your calculation utilizes the basis: def2-SVP
   F. Weigend and R. Ahlrichs, Phys. Chem. Chem. Phys. 7, 3297 (2005).

----- AuxJ basis set information -----
Your calculation utilizes the auxiliary basis: def2/J
   H-Rn: F. Weigend, Phys. Chem. Chem. Phys. 8, 1057 (2006).
   Fr-Lr: K. Eichkorn, F. Weigend, O. Treutler, R. Ahlrichs; Theor. Chem. Acc. 97, 119 (1997).

================================================================================
                                        WARNINGS
                       Please study these warnings very carefully!
================================================================================

WARNING: Old DensityContainer found on disk!
         Will remove this file - 
         If you want to keep old densities, please start your calculation with a different basename. 


================================================================================
                                       INPUT FILE
================================================================================
NAME = input.inp
|  1> ! B3LYP def2-SVP TightSCF D3BJ
|  2> * xyz 0 1
|  3> C       0.85121569      1.10496986      0.00356704
|  4> C      -0.52762488      1.28645919      0.11033577
|  5> C      -1.37884061      0.18148933      0.10676870
|  6> C      -0.85121573     -1.10496990     -0.00356714
|  7> C       0.52762487     -1.28645922     -0.11033610
|  8> C       1.37884055     -0.18148932     -0.10676911
|  9> H       1.51441076      1.96586861      0.00634678
| 10> H      -0.93870536      2.28875908      0.19630019
| 11> H      -2.45311620      0.32289050      0.18995406
| 12> H      -1.51441077     -1.96586870     -0.00634580
| 13> H       0.93870552     -2.28875909     -0.19630004
| 14> H       2.45311615     -0.32289033     -0.18995435
| 15> **                         ****END OF INPUT****
================================================================================

                       ****************************
                       * Single Point Calculation *
                       ****************************

---------------------------------
CARTESIAN COORDINATES (ANGSTROEM)
---------------------------------
  C      0.851216    1.104970    0.003567
  C     -0.527625    1.286459    0.110336
  C     -1.378841    0.181489    0.106769
  C     -0.851216   -1.104970   -0.003567
  C      0.527625   -1.286459   -0.110336
  C      1.378841   -0.181489   -0.106769
  H      1.514411    1.965869    0.006347
  H     -0.938705    2.288759    0.196300
  H     -2.453116    0.322891    0.189954
  H     -1.514411   -1.965869   -0.006346
  H      0.938706   -2.288759   -0.196300
  H      2.453116   -0.322890   -0.189954

----------------------------
CARTESIAN COORDINATES (A.U.)
----------------------------
  NO LB      ZA    FRAG     MASS         X           Y           Z
   0 C     6.0000    0    12.011    1.608565    2.088090    0.006741
   1 C     6.0000    0    12.011   -0.997067    2.431056    0.208504
   2 C     6.0000    0    12.011   -2.605631    0.342965    0.201764
   3 C     6.0000    0    12.011   -1.608565   -2.088090   -0.006741
   4 C     6.0000    0    12.011    0.997067   -2.431056   -0.208505
   5 C     6.0000    0    12.011    2.605631   -0.342965   -0.201764
   6 H     1.0000    0     1.008    2.861822    3.714953    0.011994
   7 H     1.0000    0     1.008   -1.773896    4.325128    0.370954
   8 H     1.0000    0     1.008   -4.635718    0.610175    0.358961
   9 H     1.0000    0     1.008   -2.861822   -3.714953   -0.011992
  10 H     1.0000    0     1.008    1.773896   -4.325128   -0.370953
  11 H     1.0000    0     1.008    4.635718   -0.610174   -0.358962

--------------------------------
INTERNAL COORDINATES (ANGSTROEM)
--------------------------------
 C      0   0   0     0.000000000000     0.00000000     0.00000000
 C      1   0   0     1.394825887374     0.00000000     0.00000000
 C      2   1   0     1.394825915481   120.00000148     0.00000000
 C      3   2   1     1.394825925353   119.99999930     0.00000000
 C      4   3   2     1.394825933334   119.99999909     0.00000000
 C      1   2   3     1.394825896194   119.99999979     0.00000000
 H      1   2   3     1.086729996631   119.99999894   180.00003530
 H      2   1   3     1.086730008805   119.99999635   179.99999241
 H      3   2   1     1.086730020873   119.99999666   179.99998675
 H      4   3   2     1.086730015171   119.99999957   179.99996950
 H      5   4   3     1.086730016695   120.00000382   179.99997620
 H      6   1   2     1.086730000754   119.99999589   179.99999339

---------------------------
INTERNAL COORDINATES (A.U.)
---------------------------
 C      0   0   0     0.000000000000     0.00000000     0.00000000
 C      1   0   0     2.635838931640     0.00000000     0.00000000
 C      2   1   0     2.635838984754   120.00000148     0.00000000
 C      3   2   1     2.635839003410   119.99999930     0.00000000
 C      4   3   2     2.635839018493   119.99999909     0.00000000
 C      1   2   3     2.635838948308   119.99999979     0.00000000
 H      1   2   3     2.053622075150   119.99999894   180.00003530
 H      2   1   3     2.053622098155   119.99999635   179.99999241
 H      3   2   1     2.053622120960   119.99999666   179.99998675
 H      4   3   2     2.053622110185   119.99999957   179.99996950
 H      5   4   3     2.053622113066   120.00000382   179.99997620
 H      6   1   2     2.053622082941   119.99999589   179.99999339

---------------------
BASIS SET INFORMATION
---------------------
There are 2 groups of distinct atoms

 Group   1 Type C   : 7s4p1d contracted to 3s2p1d pattern {511/31/1}
 Group   2 Type H   : 4s1p contracted to 2s1p pattern {31/1}

Atom   0C    basis set group =>   1
Atom   1C    basis set group =>   1
Atom   2C    basis set group =>   1
Atom   3C    basis set group =>   1
Atom   4C    basis set group =>   1
Atom   5C    basis set group =>   1
Atom   6H    basis set group =>   2
Atom   7H    basis set group =>   2
Atom   8H    basis set group =>   2
Atom   9H    basis set group =>   2
Atom  10H    basis set group =>   2
Atom  11H    basis set group =>   2
---------------------------------
AUXILIARY/J BASIS SET INFORMATION
---------------------------------
There are 2 groups of distinct atoms

 Group   1 Type C   : 12s5p4d2f1g contracted to 6s4p3d1f1g pattern {711111/2111/211/2/1}
 Group   2 Type H   : 5s2p1d contracted to 3s1p1d pattern {311/2/1}

Atom   0C    basis set group =>   1
Atom   1C    basis set group =>   1
Atom   2C    basis set group =>   1
Atom   3C    basis set group =>   1
Atom   4C    basis set group =>   1
Atom   5C    basis set group =>   1
Atom   6H    basis set group =>   2
Atom   7H    basis set group =>   2
Atom   8H    basis set group =>   2
Atom   9H    basis set group =>   2
Atom  10H    basis set group =>   2
Atom  11H    basis set group =>   2

Checking for AutoStart:
The File: input.gbw exists
Trying to determine its content:
     ... Fine, the file contains calculation information
     ... Fine, the calculation information was read
     ... Fine, the file contains a basis set
     ... Fine, the basis set was read
     ... Fine, the file contains a geometry
     ... Fine, the geometry was read
     ... Fine, the file contains a set of orbitals
     ... Fine, the orbitals can be read
     => possible old guess file was deleted
     => GBW file was renamed to GES file
     => GES file is set as startup file
     => Guess is set to MORead
     ... now leaving AutoStart

------------------------------------------------------------------------------
                             ORCA STARTUP CALCULATIONS
                           -- RI-GTO INTEGRALS CHOSEN --
------------------------------------------------------------------------------
------------------------------------------------------------------------------
                   ___                                                        
                  /   \      - P O W E R E D   B Y -                         
                 /     \                                                     
                 |  |  |   _    _      __       _____    __    __             
                 |  |  |  | |  | |    /  \     |  _  \  |  |  /  |          
                  \  \/   | |  | |   /    \    | | | |  |  | /  /          
                 / \  \   | |__| |  /  /\  \   | |_| |  |  |/  /          
                |  |  |   |  __  | /  /__\  \  |    /   |      \           
                |  |  |   | |  | | |   __   |  |    \   |  |\   \          
                \     /   | |  | | |  |  |  |  | |\  \  |  | \   \       
                 \___/    |_|  |_| |__|  |__|  |_| \__\ |__|  \__/        
                                                                              
                      - O R C A' S   B I G   F R I E N D -                    
                                      &                                       
                       - I N T E G R A L  F E E D E R -                       
                                                                              
 v1 FN, 2020, v2 2021, v3 2022-2024                                           
------------------------------------------------------------------------------


----------------------
SHARK INTEGRAL PACKAGE
----------------------

Number of atoms                             ...     12
Number of basis functions                   ...    114
Number of shells                            ...     54
Maximum angular momentum                    ...      2
Integral batch strategy                     ... SHARK/LIBINT Hybrid
RI-J (if used) integral strategy            ... SPLIT-RIJ (Revised 2003 algorithm where possible)
Printlevel                                  ...      1
Contraction scheme used                     ... SEGMENTED contraction
Prescreening option                         ... SCHWARTZ
   Thresh                                   ... 2.500e-11
   Tcut                                     ... 2.500e-12
   Tpresel                                  ... 2.500e-12 
Coulomb Range Separation                    ... NOT USED
Exchange Range Separation                   ... NOT USED
Multipole approximations                    ... NOT USED
Finite Nucleus Model                        ... NOT USED
CABS basis                                  ... NOT available
Auxiliary Coulomb fitting basis             ... AVAILABLE
   # of basis functions in Aux-J            ...    360
   # of shells in Aux-J                     ...    120
   Maximum angular momentum in Aux-J        ...      4
Auxiliary J/K fitting basis                 ... NOT available
Auxiliary Correlation fitting basis         ... NOT available
Auxiliary 'external' fitting basis          ... NOT available

Checking pre-screening integrals            ... done (  0.0 sec) Dimension = 54
   => SHARK Basis and OBASIS are compatible. Storing Pre-screening
Shell pair information
Shell pair cut-off parameter TPreSel        ...   2.5e-12
Total number of shell pairs                 ...      1485
Shell pairs after pre-screening             ...      1467
Total number of primitive shell pairs       ...      5349
Primitive shell pairs kept                  ...      4140
          la=0 lb=0:    456 shell pairs
          la=1 lb=0:    534 shell pairs
          la=1 lb=1:    168 shell pairs
          la=2 lb=0:    180 shell pairs
          la=2 lb=1:    108 shell pairs
          la=2 lb=2:     21 shell pairs

Checking whether 4 symmetric matrices of dimension 114 fit in memory
:Max Core in MB      =   4096.00
 MB in use           =      4.80
 MB left             =   4091.20
 MB needed           =      0.20
 Data fit in memory  = YES
Calculating RI/J V-Matrix + Cholesky decomp.... done (  0.0 sec)
Calculating Nuclear repulsion               ... done (  0.0 sec) ENN=    203.416101454354 Eh

Diagonalization of the overlap matrix:
Smallest eigenvalue                        ... 3.156e-04
Time for diagonalization                   ...    0.001 sec
Threshold for overlap eigenvalues          ... 1.000e-07
Number of eigenvalues below threshold      ... 0
Time for construction of square roots      ...    0.001 sec
Total time needed                          ...    0.002 sec

-------------------
DFT GRID GENERATION
-------------------

General Integration Accuracy     IntAcc      ... 4.388
Radial Grid Type                 RadialGrid  ... OptM3 with GC (2021)
Angular Grid (max. ang.)         AngularGrid ... 4 (Lebedev-302)
Angular grid pruning method      GridPruning ... 4 (adaptive)
Weight generation scheme         WeightScheme... mBecke (2022)
Basis function cutoff            BFCut       ... 1.0000e-11
Integration weight cutoff        WCut        ... 1.0000e-14
Partially contracted basis set               ... off
Rotationally invariant grid construction     ... off
Angular grids for H and He will be reduced by one unit

Total number of grid points                  ...    55544
Total number of batches                      ...      874
Average number of points per batch           ...       63
Average number of grid points per atom       ...     4629

--------------------
COSX GRID GENERATION
--------------------

GRIDX 1
-------
General Integration Accuracy     IntAcc      ... 3.816
Radial Grid Type                 RadialGrid  ... OptM3 with GC (2021)
Angular Grid (max. ang.)         AngularGrid ... 1 (Lebedev-50)
Angular grid pruning method      GridPruning ... 4 (adaptive)
Weight generation scheme         WeightScheme... mBecke (2022)
Basis function cutoff            BFCut       ... 1.0000e-11
Integration weight cutoff        WCut        ... 1.0000e-14
Partially contracted basis set               ... on
Rotationally invariant grid construction     ... off
Angular grids for H and He will be reduced by one unit

Total number of grid points                  ...     7140
Total number of batches                      ...       60
Average number of points per batch           ...      119
Average number of grid points per atom       ...      595
UseSFitting                                  ... on

GRIDX 2
-------
General Integration Accuracy     IntAcc      ... 4.020
Radial Grid Type                 RadialGrid  ... OptM3 with GC (2021)
Angular Grid (max. ang.)         AngularGrid ... 2 (Lebedev-110)
Angular grid pruning method      GridPruning ... 4 (adaptive)
Weight generation scheme         WeightScheme... mBecke (2022)
Basis function cutoff            BFCut       ... 1.0000e-11
Integration weight cutoff        WCut        ... 1.0000e-14
Partially contracted basis set               ... on
Rotationally invariant grid construction     ... off
Angular grids for H and He will be reduced by one unit

Total number of grid points                  ...    15516
Total number of batches                      ...      126
Average number of points per batch           ...      123
Average number of grid points per atom       ...     1293
UseSFitting                                  ... on

GRIDX 3
-------
General Integration Accuracy     IntAcc      ... 4.338
Radial Grid Type                 RadialGrid  ... OptM3 with GC (2021)
Angular Grid (max. ang.)         AngularGrid ... 3 (Lebedev-194)
Angular grid pruning method      GridPruning ... 4 (adaptive)
Weight generation scheme         WeightScheme... mBecke (2022)
Basis function cutoff            BFCut       ... 1.0000e-11
Integration weight cutoff        WCut        ... 1.0000e-14
Partially contracted basis set               ... on
Rotationally invariant grid construction     ... off
Angular grids for H and He will be reduced by one unit

Total number of grid points                  ...    34116
Total number of batches                      ...      274
Average number of points per batch           ...      124
Average number of grid points per atom       ...     2843
UseSFitting                                  ... on
Grids setup in   0.5 sec
Initializing property integral containers    ... done (  0.0 sec)

SHARK setup successfully completed in   0.6 seconds

Maximum memory used throughout the entire STARTUP-calculation: 22.1 MB
-------------------------------------------------------------------------------
                                 ORCA GUESS
                   Start orbitals & Density for SCF / CASSCF
-------------------------------------------------------------------------------

------------
SCF SETTINGS
------------
Hamiltonian:
 Density Functional     Method          .... DFT(GTOs)
 Exchange Functional    Exchange        .... B88
   X-Alpha parameter    XAlpha          ....  0.666667
   Becke's b parameter  XBeta           ....  0.004200
 Correlation Functional Correlation     .... LYP
 LDA part of GGA corr.  LDAOpt          .... VWN-5
 Gradients option       PostSCFGGA      .... off
 Hybrid DFT is turned on
   Fraction HF Exchange ScalHFX         ....  0.200000
   Scaling of DF-GGA-X  ScalDFX         ....  0.720000
   Scaling of DF-GGA-C  ScalDFC         ....  0.810000
   Scaling of DF-LDA-C  ScalLDAC        ....  1.000000
   Perturbative correction              ....  0.000000
   NL short-range parameter             ....  4.800000
 RI-approximation to the Coulomb term is turned on
   Number of AuxJ basis functions       .... 360
   RIJ-COSX (HFX calculated with COS-X)).... on


General Settings:
 Integral files         IntName         .... input
 Hartree-Fock type      HFTyp           .... RHF
 Total Charge           Charge          ....    0
 Multiplicity           Mult            ....    1
 Number of Electrons    NEL             ....   42
 Basis Dimension        Dim             ....  114
 Nuclear Repulsion      ENuc            ....    203.4161014544 Eh

Convergence Acceleration:
 AO-DIIS                CNVDIIS         .... on
   Start iteration      DIISMaxIt       ....    12
   Startup error        DIISStart       ....  0.200000
   # of expansion vecs  DIISMaxEq       ....     5
   Bias factor          DIISBfac        ....   1.050
   Max. coefficient     DIISMaxC        ....  10.000
 MO-DIIS                CNVKDIIS        .... off
 Trust-Rad. Augm. Hess. CNVTRAH         .... auto
   Auto Start mean grad. ratio tolernc. ....  1.125000
   Auto Start start iteration           ....     1
   Auto Start num. interpolation iter.  ....    10
   Max. Number of Micro iterations      ....    24
   Max. Number of Macro iterations      .... Maxiter - #DIIS iter
   Number of Davidson start vectors     ....     2
   Converg. threshold    (grad. norm)   ....   1.000e-05
   Grad. Scal. Fac. for Micro threshold ....   0.100
   Minimum threshold for Micro iter.    ....   1.000e-02
   NR start threshold (gradient norm)   ....   1.000e-04
   Initial trust radius                 ....   0.400
   Minimum AH scaling param. (alpha)    ....   1.000
   Maximum AH scaling param. (alpha)    .... 1000.000
   Quad. conv. algorithm                .... NR
   White noise on init. David. guess    .... on
   Maximum white noise                  ....   0.010
   Pseudo random numbers                .... off
   Inactive MOs                         .... canonical
   Orbital update algorithm             .... Taylor
   Preconditioner                       .... Diag
   Full preconditioner red. dimension   ....   250
 SOSCF                 CNVSOSCF           .... on
   Start iteration     SOSCFMaxIt         ....   150
   Startup grad/error  SOSCFStart         ....  0.003300
   Hessian update      SOSCFHessUp        .... L-BFGS
   Autom. constraints  SOSCFAutoConstrain .... off
 Level Shifting         CNVShift        .... on
   Level shift para.    LevelShift      ....    0.2500
   Turn off err/grad.   ShiftErr        ....    0.0010
 Zerner damping         CNVZerner       .... off
 Static damping         CNVDamp         .... on
   Fraction old density DampFac         ....    0.7000
   Max. Damping (<1)    DampMax         ....    0.9800
   Min. Damping (>=0)   DampMin         ....    0.0000
   Turn off err/grad.   DampErr         ....    0.1000

SCF Procedure:
 Maximum # iterations   MaxIter         ....   125
 SCF integral mode      SCFMode         .... Direct
   Integral package                     .... SHARK and LIBINT hybrid scheme
 Reset frequency        DirectResetFreq ....    20
 Integral Threshold     Thresh          ....  2.500e-11 Eh
 Primitive CutOff       TCut            ....  2.500e-12 Eh

Convergence Tolerance:
 Convergence Check Mode ConvCheckMode   .... Total+1el-Energy
 Convergence forced     ConvForced      .... 0
 Energy Change          TolE            ....  1.000e-08 Eh
 1-El. energy change                    ....  1.000e-05 Eh
 Orbital Gradient       TolG            ....  1.000e-05
 Orbital Rotation angle TolX            ....  1.000e-05
 DIIS Error             TolErr          ....  5.000e-07

---------------------
INITIAL GUESS: MOREAD
---------------------
Guess MOs are being read from file: input.ges
Input Geometry matches current geometry (good)
Input basis set matches current basis set (good)
Occupation numbers will be reassigned to an Aufbau configuration
MOs were renormalized
MOs were reorthogonalized (Cholesky)
                      ------------------
                      INITIAL GUESS DONE (   0.0 sec)
                      ------------------
             **** ENERGY FILE WAS UPDATED (input.en.tmp) ****
Finished Guess after   0.3 sec
Maximum memory used throughout the entire GUESS-calculation: 8.2 MB

-------------------------------------------------------------------------------------------
                                      ORCA LEAN-SCF
                              memory conserving SCF solver
-------------------------------------------------------------------------------------------

----------------------------------------D-I-I-S--------------------------------------------
Iteration    Energy (Eh)           Delta-E    RMSDP     MaxDP     DIISErr   Damp  Time(sec)
-------------------------------------------------------------------------------------------
               ***  Starting incremental Fock matrix formation  ***
                              *** Initializing SOSCF ***
---------------------------------------S-O-S-C-F--------------------------------------
Iteration    Energy (Eh)           Delta-E    RMSDP     MaxDP     MaxGrad    Time(sec)
--------------------------------------------------------------------------------------
    1    -231.9304195501805737     0.00e+00  3.24e-07  5.11e-06  5.25e-07     1.2
               *** Restarting incremental Fock matrix formation ***
    2    -231.9304195503388826    -1.58e-10  1.94e-07  3.85e-06  9.98e-07     1.2
                  *** Gradient check signals convergence ***

               *****************************************************
               *                     SUCCESS                       *
               *           SCF CONVERGED AFTER   2 CYCLES          *
               *****************************************************

Recomputing exchange energy using gridx3       ... done (    1.918 sec)
Old exchange energy                            :     -6.634204068 Eh
New exchange energy                            :     -6.634218739 Eh
Exchange energy change after final integration :     -0.000014671 Eh
Total energy after final integration           :   -231.930434220 Eh
             **** ENERGY FILE WAS UPDATED (input.en.tmp) ****

----------------
TOTAL SCF ENERGY
----------------

Total Energy       :       -231.93043421996245 Eh           -6311.14797 eV

Components:
Nuclear Repulsion  :        203.41610145435416 Eh            5535.23353 eV
Electronic Energy  :       -435.34652100288372 Eh          -11846.38109 eV
One Electron Energy:       -713.75294547652902 Eh          -19422.20505 eV
Two Electron Energy:        278.40642447364530 Eh            7575.82396 eV

Virial components:
Potential Energy   :       -461.35061088902251 Eh          -12553.98835 eV
Kinetic Energy     :        229.42017666906006 Eh            6242.84039 eV
Virial Ratio       :          2.01094174709195

DFT components:
N(Alpha)           :       21.000004566608 electrons
N(Beta)            :       21.000004566608 electrons
N(Total)           :       42.000009133216 electrons
E(X)               :      -26.323335106406 Eh       
E(C)               :       -1.633308270191 Eh       
E(XC)              :      -27.956643376597 Eh       

---------------
SCF CONVERGENCE
---------------

  Last Energy change         ...    1.5831e-10  Tolerance :   1.0000e-08
  Last MAX-Density change    ...    3.8453e-06  Tolerance :   1.0000e-07
  Last RMS-Density change    ...    1.9370e-07  Tolerance :   5.0000e-09
  Last DIIS Error            ...    2.5494e-06  Tolerance :   5.0000e-07
  Last Orbital Gradient      ...    9.9835e-07  Tolerance :   1.0000e-05
  Last Orbital Rotation      ...    2.3531e-06  Tolerance :   1.0000e-05


----------------
ORBITAL ENERGIES
----------------

  NO   OCC          E(Eh)            E(eV) 
   0   2.0000     -10.186393      -277.1859 
   1   2.0000     -10.186241      -277.1817 
   2   2.0000     -10.186224      -277.1812 
   3   2.0000     -10.185832      -277.1706 
   4   2.0000     -10.185815      -277.1701 
   5   2.0000     -10.185702      -277.1671 
   6   2.0000      -0.843697       -22.9582 
   7   2.0000      -0.735079       -20.0025 
   8   2.0000      -0.735069       -20.0022 
   9   2.0000      -0.594564       -16.1789 
  10   2.0000      -0.594555       -16.1787 
  11   2.0000      -0.520062       -14.1516 
  12   2.0000      -0.454163       -12.3584 
  13   2.0000      -0.445872       -12.1328 
  14   2.0000      -0.419573       -11.4172 
  15   2.0000      -0.419567       -11.4170 
  16   2.0000      -0.366082        -9.9616 
  17   2.0000      -0.343269        -9.3408 
  18   2.0000      -0.343266        -9.3407 
  19   2.0000      -0.252990        -6.8842 
  20   2.0000      -0.252985        -6.8841 
  21   0.0000      -0.004820        -0.1312 
  22   0.0000      -0.004819        -0.1311 
  23   0.0000       0.061663         1.6779 
  24   0.0000       0.102651         2.7933 
  25   0.0000       0.102654         2.7934 
  26   0.0000       0.140541         3.8243 
  27   0.0000       0.140557         3.8248 
  28   0.0000       0.153402         4.1743 
  29   0.0000       0.162035         4.4092 
  30   0.0000       0.291847         7.9415 
  31   0.0000       0.291858         7.9419 
*Only the first 10 virtual orbitals were printed.

                    ********************************
                    * MULLIKEN POPULATION ANALYSIS *
                    ********************************

-----------------------
MULLIKEN ATOMIC CHARGES
-----------------------
   0 C :    0.020495
   1 C :    0.020775
   2 C :    0.020643
   3 C :    0.020495
   4 C :    0.020775
   5 C :    0.020643
   6 H :   -0.020570
   7 H :   -0.020782
   8 H :   -0.020561
   9 H :   -0.020570
  10 H :   -0.020782
  11 H :   -0.020561
Sum of atomic charges:   -0.0000000

--------------------------------
MULLIKEN REDUCED ORBITAL CHARGES
--------------------------------
  0 C s       :     3.156704  s :     3.156704
      pz      :     0.986332  p :     2.787674
      px      :     0.916490
      py      :     0.884852
      dz2     :     0.002592  d :     0.035127
      dxz     :     0.004882
      dyz     :     0.003863
      dx2y2   :     0.010770
      dxy     :     0.013019

  1 C s       :     3.156681  s :     3.156681
      pz      :     0.985554  p :     2.787421
      px      :     0.944771
      py      :     0.857096
      dz2     :     0.002529  d :     0.035124
      dxz     :     0.005804
      dyz     :     0.002992
      dx2y2   :     0.011919
      dxy     :     0.011880

  2 C s       :     3.156438  s :     3.156438
      pz      :     0.985645  p :     2.787793
      px      :     0.841654
      py      :     0.960494
      dz2     :     0.002532  d :     0.035127
      dxz     :     0.002467
      dyz     :     0.006325
      dx2y2   :     0.013006
      dxy     :     0.010796

  3 C s       :     3.156704  s :     3.156704
      pz      :     0.986332  p :     2.787674
      px      :     0.916490
      py      :     0.884852
      dz2     :     0.002592  d :     0.035127
      dxz     :     0.004882
      dyz     :     0.003863
      dx2y2   :     0.010770
      dxy     :     0.013019

  4 C s       :     3.156680  s :     3.156680
      pz      :     0.985553  p :     2.787421
      px      :     0.944771
      py      :     0.857097
      dz2     :     0.002529  d :     0.035124
      dxz     :     0.005804
      dyz     :     0.002992
      dx2y2   :     0.011919
      dxy     :     0.011880

  5 C s       :     3.156437  s :     3.156437
      pz      :     0.985645  p :     2.787793
      px      :     0.841654
      py      :     0.960494
      dz2     :     0.002532  d :     0.035127
      dxz     :     0.002467
      dyz     :     0.006325
      dx2y2   :     0.013006
      dxy     :     0.010796

  6 H s       :     0.997583  s :     0.997583
      pz      :     0.004750  p :     0.022988
      px      :     0.007663
      py      :     0.010575

  7 H s       :     0.997792  s :     0.997792
      pz      :     0.004821  p :     0.022990
      px      :     0.005046
      py      :     0.013123

  8 H s       :     0.997575  s :     0.997575
      pz      :     0.004816  p :     0.022986
      px      :     0.014569
      py      :     0.003601

  9 H s       :     0.997583  s :     0.997583
      pz      :     0.004750  p :     0.022988
      px      :     0.007663
      py      :     0.010575

 10 H s       :     0.997791  s :     0.997791
      pz      :     0.004821  p :     0.022990
      px      :     0.005046
      py      :     0.013123

 11 H s       :     0.997575  s :     0.997575
      pz      :     0.004816  p :     0.022986
      px      :     0.014569
      py      :     0.003601



                     *******************************
                     * LOEWDIN POPULATION ANALYSIS *
                     *******************************

----------------------
LOEWDIN ATOMIC CHARGES
----------------------
   0 C :   -0.024866
   1 C :   -0.024836
   2 C :   -0.024893
   3 C :   -0.024866
   4 C :   -0.024836
   5 C :   -0.024893
   6 H :    0.024872
   7 H :    0.024842
   8 H :    0.024880
   9 H :    0.024872
  10 H :    0.024842
  11 H :    0.024880

-------------------------------
LOEWDIN REDUCED ORBITAL CHARGES
-------------------------------
  0 C s       :     2.859970  s :     2.859970
      pz      :     0.968782  p :     3.073898
      px      :     1.056531
      py      :     1.048584
      dz2     :     0.006306  d :     0.090998
      dxz     :     0.010200
      dyz     :     0.007715
      dx2y2   :     0.030838
      dxy     :     0.035939

  1 C s       :     2.859978  s :     2.859978
      pz      :     0.968580  p :     3.073859
      px      :     1.063794
      py      :     1.041486
      dz2     :     0.006181  d :     0.090999
      dxz     :     0.012410
      dyz     :     0.005570
      dx2y2   :     0.033457
      dxy     :     0.033380

  2 C s       :     2.859969  s :     2.859969
      pz      :     0.968620  p :     3.073926
      px      :     1.037327
      py      :     1.067979
      dz2     :     0.006189  d :     0.090998
      dxz     :     0.004306
      dyz     :     0.013670
      dx2y2   :     0.035928
      dxy     :     0.030905

  3 C s       :     2.859970  s :     2.859970
      pz      :     0.968782  p :     3.073898
      px      :     1.056531
      py      :     1.048584
      dz2     :     0.006306  d :     0.090998
      dxz     :     0.010200
      dyz     :     0.007715
      dx2y2   :     0.030838
      dxy     :     0.035939

  4 C s       :     2.859978  s :     2.859978
      pz      :     0.968579  p :     3.073859
      px      :     1.063794
      py      :     1.041486
      dz2     :     0.006181  d :     0.090999
      dxz     :     0.012410
      dyz     :     0.005570
      dx2y2   :     0.033457
      dxy     :     0.033380

  5 C s       :     2.859969  s :     2.859969
      pz      :     0.968620  p :     3.073926
      px      :     1.037327
      py      :     1.067979
      dz2     :     0.006189  d :     0.090998
      dxz     :     0.004306
      dyz     :     0.013670
      dx2y2   :     0.035928
      dxy     :     0.030905

  6 H s       :     0.907696  s :     0.907696
      pz      :     0.014380  p :     0.067432
      px      :     0.022632
      py      :     0.030420

  7 H s       :     0.907727  s :     0.907727
      pz      :     0.014570  p :     0.067431
      px      :     0.015627
      py      :     0.037234

  8 H s       :     0.907685  s :     0.907685
      pz      :     0.014559  p :     0.067435
      px      :     0.041106
      py      :     0.011770

  9 H s       :     0.907696  s :     0.907696
      pz      :     0.014380  p :     0.067432
      px      :     0.022632
      py      :     0.030420

 10 H s       :     0.907727  s :     0.907727
      pz      :     0.014570  p :     0.067431
      px      :     0.015627
      py      :     0.037234

 11 H s       :     0.907685  s :     0.907685
      pz      :     0.014559  p :     0.067435
      px      :     0.041106
      py      :     0.011770



                      *****************************
                      * MAYER POPULATION ANALYSIS *
                      *****************************

  NA   - Mulliken gross atomic population
  ZA   - Total nuclear charge
  QA   - Mulliken gross atomic charge
  VA   - Mayer's total valence
  BVA  - Mayer's bonded valence
  FA   - Mayer's free valence

  ATOM       NA         ZA         QA         VA         BVA        FA
  0 C      5.9795     6.0000     0.0205     3.8523     3.8523    -0.0000
  1 C      5.9792     6.0000     0.0208     3.8523     3.8523     0.0000
  2 C      5.9794     6.0000     0.0206     3.8524     3.8524    -0.0000
  3 C      5.9795     6.0000     0.0205     3.8523     3.8523     0.0000
  4 C      5.9792     6.0000     0.0208     3.8523     3.8523     0.0000
  5 C      5.9794     6.0000     0.0206     3.8524     3.8524     0.0000
  6 H      1.0206     1.0000    -0.0206     0.9769     0.9769    -0.0000
  7 H      1.0208     1.0000    -0.0208     0.9769     0.9769     0.0000
  8 H      1.0206     1.0000    -0.0206     0.9769     0.9769    -0.0000
  9 H      1.0206     1.0000    -0.0206     0.9769     0.9769     0.0000
 10 H      1.0208     1.0000    -0.0208     0.9769     0.9769     0.0000
 11 H      1.0206     1.0000    -0.0206     0.9769     0.9769    -0.0000

  Mayer bond orders larger than 0.100000
B(  0-C ,  1-C ) :   1.3918 B(  0-C ,  5-C ) :   1.3920 B(  0-C ,  6-H ) :   0.9860 
B(  1-C ,  2-C ) :   1.3920 B(  1-C ,  7-H ) :   0.9860 B(  2-C ,  3-C ) :   1.3920 
B(  2-C ,  8-H ) :   0.9859 B(  3-C ,  4-C ) :   1.3918 B(  3-C ,  9-H ) :   0.9860 
B(  4-C ,  5-C ) :   1.3920 B(  4-C , 10-H ) :   0.9860 B(  5-C , 11-H ) :   0.9859 


-------
TIMINGS
-------

Total SCF time: 0 days 0 hours 0 min 5 sec 

Total time                  ....       5.014 sec
Sum of individual times     ....       4.397 sec  ( 87.7%)

SCF preparation             ....       0.050 sec  (  1.0%)
Fock matrix formation       ....       4.211 sec  ( 84.0%)
  Startup                   ....       0.003 sec  (  0.1% of F)
  Split-RI-J                ....       0.165 sec  (  3.9% of F)
  Chain of spheres X        ....       3.958 sec  ( 94.0% of F)
  XC integration            ....       0.616 sec  ( 14.6% of F)
    Basis function eval.    ....       0.180 sec  ( 29.2% of XC)
    Density eval.           ....       0.129 sec  ( 20.9% of XC)
    XC-Functional eval.     ....       0.029 sec  (  4.7% of XC)
    XC-Potential eval.      ....       0.233 sec  ( 37.8% of XC)
Diagonalization             ....       0.000 sec  (  0.0%)
Density matrix formation    ....       0.010 sec  (  0.2%)
Total Energy calculation    ....       0.012 sec  (  0.2%)
Population analysis         ....       0.053 sec  (  1.1%)
Orbital Transformation      ....       0.015 sec  (  0.3%)
Orbital Orthonormalization  ....       0.000 sec  (  0.0%)
DIIS solution               ....       0.017 sec  (  0.3%)
SOSCF solution              ....       0.029 sec  (  0.6%)
Finished LeanSCF after   5.1 sec

Maximum memory used throughout the entire LEANSCF-calculation: 12.4 MB


-------------------------------------------------------------------------------
                          DFT DISPERSION CORRECTION                            
                                                                               
                              DFTD3 V3.1  Rev 1                                
                          USING Becke-Johnson damping                          
-------------------------------------------------------------------------------
The B3LYP functional is recognized
Active option DFTDOPT                   ...         4   

molecular C6(AA) [au] = 1659.555935 


            DFT-D V3
 parameters
 s6 scaling factor         :     1.0000 
 a1 scaling factor         :     0.3981 
 s8 scaling factor         :     1.9889 
 a2 scaling factor         :     4.4211 
 ad hoc parameters k1-k3   :    16.0000     1.3333    -4.0000 

 Edisp/kcal,au: -11.867806305531  -0.018912551173 
 E6   /kcal   :  -5.471378550 
 E8   /kcal   :  -6.396427755 
 % E8         :  53.897304950 

-------------------------   ----------------
Dispersion correction           -0.018912551
-------------------------   ----------------


-------------------------   --------------------
FINAL SINGLE POINT ENERGY      -231.949346771135
-------------------------   --------------------


------------------------------------------------------------------------------
                              ORCA PROPERTY CALCULATIONS
------------------------------------------------------------------------------

GBWName                                 ... input.gbw
Number of atoms                         ...     12
Number of basis functions               ...    114
Max core memory                         ...   4096 MB

Electric properties:
Dipole moment                           ... YES
Quadrupole moment                       ...  NO
Static polarizability (Dipole/Dipole)   ...  NO
Static polarizability (Dipole/Quad.)    ...  NO
Static polarizability (Quad./Quad.)     ...  NO
Static polarizability (Velocity)        ...  NO
Static hyperpolarizability              ...  NO

Atomic electric properties:
Dipole moment                           ...  NO
Quadrupole moment                       ...  NO
Static polarizability                   ...  NO

Choice of electric origin               ... Center of mass
Position of electric origin             ...    -0.000000    -0.000000    -0.000000

General magnetic properties:
Magnetizability                         ...  NO

EPR properties:
g-Tensor (aka g-matrix)                 ...  NO
Zero-Field splitting spin-orbit         ...  NO
Zero-field splitting spin-spin          ...  NO
Hyperfine couplings                     ...  NO (   0 nuclei)
Quadrupole couplings                    ...  NO (   0 nuclei)
Contact density                         ...  NO (   0 nuclei)

NMR properties:
Chemical shifts                         ...  NO (   0 nuclei)
Spin-rotation constants                 ...  NO (   0 nuclei)
Spin-spin couplings                     ...  NO (   0 nuclei,    0 pairs)

Choice of magnetic origin               ... GIAO
Position of magnetic origin             ...     0.000000     0.000000     0.000000

Properties with geometric perturbations:
SCF Hessian                             ...  NO
IR spectrum                             ...  NO
VCD spectrum                            ...  NO
X-ray spectroscopy properties:
SCF XES/XAS/RIXS spectra                ...  NO

SCF SOC stabilization energy            ...  NO
Diagonal Born-Oppenheimer correction    ...  NO

-------------
DIPOLE MOMENT
-------------

Method             : SCF
Type of density    : Electron Density
Multiplicity       :   1
Irrep              :   0
Energy             :  -231.9304342199624500 Eh
Basis              : AO
                                X                 Y                 Z
Electronic contribution:      0.000000078      -0.000000449      -0.000001167
Nuclear contribution   :      0.000000182       0.000000113       0.000001454
                        -----------------------------------------
Total Dipole Moment    :      0.000000260      -0.000000336       0.000000288
                        -----------------------------------------
Magnitude (a.u.)       :      0.000000513
Magnitude (Debye)      :      0.000001304



--------------------
Rotational spectrum 
--------------------
 
Rotational constants in cm-1:             0.189997             0.189997             0.094998 
Rotational constants in MHz :          5695.966656          5695.966581          2847.983309 

Dipole components along the rotational axes: 
x,y,z [a.u.] :    -0.000000     0.000000     0.000000 
x,y,z [Debye]:    -0.000000     0.000001     0.000001 

 

Dipole moment calculation done in   0.0 sec 

Maximum memory used throughout the entire PROP-calculation: 6.3 MB

--------------------------------
SUGGESTED CITATIONS FOR THIS RUN
--------------------------------

Below you find a list of papers that are relevant to this ORCA run
We neither can nor want to force you to cite these papers, but we appreciate if you do
You receive ORCA, which is the product of decades of hard work by many enthusiastic individuals, for free
The only thing we kindly ask in return is that you cite our papers,
We deeply appreciate it, if you show your appreciation for ORCA by not just citing the generic ORCA reference.

Please note that relegating all ORCA citations to the supporting information does *not* help us.
SI sections are not indexed - citations you put there will not count into any citation statistics
But we need these citations in order to attract the funding resources that allow us to do what we are doing

Therefore, if you are a happy ORCA user, please consider citing a few of the papers listed below in the main body of your paper

In addition to the list printed below, the program has created the file input.bibtex that contains the list in bibtex format
You can import this file easily into all common literature databanks and citation aid programs


List of essential papers. We consider these as the minimum necessary citations

  1. Neese, F.
     Software update: the ORCA program system, version 6.0
     WIRES Comput. Molec. Sci. 2025 15(1), e70019
     doi.org/10.1002/wcms.7019

List of papers to cite with high priority. The work reported in these papers was absolutely
necessary for this run to complete.
Our perspective: the developers of density functionals and basis sets usually get cited in chemistry papers
Good! But without the algorithms to do something with them, the functionals or basis sets would not do anything.
Hence, in our opinion, the algorithm design and method developments papers are equally worthy of getting cited

  1. Neese, F.
     An improvement of the resolution of the identity approximation for the formation of the Coulomb matrix
     J. Comp. Chem. 2003 24(14), 1740-1747
     doi.org/10.1002/jcc.10318
  2. Neese, F.; Wennmohs, F.; Hansen, A.; Becker, U.
     Efficient, approximate and parallel Hartree-Fock and hybrid DFT calculations. A 'chain-of-spheres' algorithm for the Hartree-Fock exchange
     Chem. Phys. 2009 356(1-3), 98-109
     doi.org/10.1016/j.chemphys.2008.10.036
  3. Grimme, S.; Antony, J.; Ehrlich, S.; Krieg, H.
     A consistent and accurate ab initio parametrization of density functional dispersion correction (DFT-D) for the 94 elements H-Pu
     J. Chem. Phys. 2010 132 , 154104
     doi.org/10.1063/1.3382344
  4. Grimme, S.; Ehrlich, S.; Goerigk, L.
     Effect of the damping function in dispersion corrected density functional theory
     J. Comput. Chem. 2011 32(7), 1456-1465
     doi.org/10.1002/jcc.21759
  5. Helmich-Paris, B.; de Souza, B.; Neese, F.; Izsák, R.
     An improved chain of spheres for exchange algorithm
     J. Chem. Phys. 2021 155(10), 104109
     doi.org/10.1063/5.0058766
  6. Neese, F.
     The SHARK Integral Generation and Digestion System
     J. Comp. Chem. 2022 44(3), 381
     doi.org/10.1002/jcc.26942

List of suggested additional citations. These are papers that are important in the 'surrounding' of 
of this run, or papers that preceded the highly important papers. If you like your results we are grateful for a citation.

  1. Izsak, R.; Neese, F.
     An overlap fitted chain of spheres exchange method
     J. Chem. Phys. 2011 135 , 144105
     doi.org/10.1063/1.3646921
  2. Izsak, R.; Hansen, A.; Neese, F.
     The resolution of identity and chain of spheres approximations for the LPNO-CCSD singles Fock term
     Molec. Phys. 2012 110 , 2413-2417
     doi.org/10.1080/00268976.2012.687466
  3. Neese, F.
     The ORCA program system
     WIRES Comput. Molec. Sci. 2012 2(1), 73-78
     doi.org/10.1002/wcms.81
  4. Izsak, R.; Neese, F.; Klopper, W.
     Robust fitting techniques in the chain of spheres approximation to the Fock exchange: The role of the complementary space
     J. Chem. Phys. 2013 139 , 
     doi.org/10.1063/1.4819264
  5. Neese, F.
     Software update: the ORCA program system, version 4.0
     WIRES Comput. Molec. Sci. 2018 8(1), 1-6
     doi.org/10.1002/wcms.1327
  6. Neese, F.; Wennmohs, F.; Becker, U.; Riplinger, C.
     The ORCA quantum chemistry program package
     J. Chem. Phys. 2020 152(22), 224108
     doi.org/10.1063/5.0004608
  7. Neese, F.
     Software update: The ORCA program system—Version 5.0
     WIRES Comput. Molec. Sci. 2022 12(1), e1606
     doi.org/10.1002/wcms.1606

List of optional additional citations

  1. Neese, F.
     Approximate second-order SCF convergence for spin unrestricted wavefunctions
     Chem. Phys. Lett. 2000 325(1-3), 93-98
     doi.org/10.1016/s0009-2614(00)00662-x

Timings for individual modules:

Sum of individual times          ...        6.139 sec (=   0.102 min)
Startup calculation              ...        0.624 sec (=   0.010 min)  10.2 %
SCF iterations                   ...        5.437 sec (=   0.091 min)  88.6 %
Property calculations            ...        0.078 sec (=   0.001 min)   1.3 %
                             ****ORCA TERMINATED NORMALLY****
TOTAL RUN TIME: 0 days 0 hours 0 minutes 6 seconds 478 msec
